 DBCSR| CPU Multiplication driver                                           XSMM
 DBCSR| Multrec recursion limit                                              512
 DBCSR| Multiplication stack size                                           1000
 DBCSR| Maximum elements for images                                    UNLIMITED
 DBCSR| Multiplicative factor virtual images                                   1
 DBCSR| Use multiplication densification                                       T
 DBCSR| Multiplication size stacks                                             3
 DBCSR| Use memory pool for CPU allocation                                     F
 DBCSR| Number of 3D layers                                               SINGLE
 DBCSR| Use MPI memory allocation                                              F
 DBCSR| Use RMA algorithm                                                      F
 DBCSR| Use Communication thread                                               T
 DBCSR| Communication thread load                                             83
 DBCSR| MPI: My node id                                                        0
 DBCSR| MPI: Number of nodes                                                  48
 DBCSR| OMP: Current number of threads                                         2
 DBCSR| OMP: Max number of threads                                             2
 DBCSR| Split modifier for TAS multiplication algorithm                  1.0E+00


  **** **** ******  **  PROGRAM STARTED AT               2021-07-14 19:16:41.936
 ***** ** ***  *** **   PROGRAM STARTED ON                terahertz-Super-Server
 **    ****   ******    PROGRAM STARTED BY                             terahertz
 ***** **    ** ** **   PROGRAM PROCESS ID                                511113
  **** **  *******  **  PROGRAM STARTED IN /home/terahertz/scratch/JOBS/RAY/cp2k
                                           -test

 CP2K| version string:                                          CP2K version 8.2
 CP2K| source code revision number:                                  git:310b7ab
 CP2K| cp2kflags: omp libint fftw3 libxc elpa parallel mpi3 scalapack xsmm max_c
 CP2K|            ontr=4 no_ipi_driver mkl
 CP2K| is freely available from                            https://www.cp2k.org/
 CP2K| Program compiled at                       Sun 11 Jul 2021 11:55:48 AM EDT
 CP2K| Program compiled on                                terahertz-Super-Server
 CP2K| Program compiled for                                  Linux-x86-64-intelx
 CP2K| Data directory path                  /home/terahertz/xconfigure/cp2k/data
 CP2K| Input file name                                                    ICE.in
 
 GLOBAL| Force Environment number                                              1
 GLOBAL| Basis set file name                                           BASIS_SET
 GLOBAL| Potential file name                                           POTENTIAL
 GLOBAL| MM Potential file name                                     MM_POTENTIAL
 GLOBAL| Coordinate file name                                      __STD_INPUT__
 GLOBAL| Method name                                                        CP2K
 GLOBAL| Project name                                                ice-XI-test
 GLOBAL| Run type                                                   ENERGY_FORCE
 GLOBAL| FFT library                                                       FFTW3
 GLOBAL| Diagonalization library                                            ELPA
 GLOBAL| Minimum number of eigenvectors for ELPA usage                        16
 GLOBAL| Orthonormality check for eigenvectors                          DISABLED
 GLOBAL| Matrix multiplication library                                    SCALAP
 GLOBAL| All-to-all communication in single precision                          F
 GLOBAL| FFTs using library dependent lengths                                  F
 GLOBAL| Grid backend                                                       AUTO
 GLOBAL| Global print level                                               MEDIUM
 GLOBAL| MPI I/O enabled                                                       T
 GLOBAL| Total number of message passing processes                            48
 GLOBAL| Number of threads for this process                                    2
 GLOBAL| This output is from process                                           0
 GLOBAL| CPU model name                Intel(R) Xeon(R) Gold 5220R CPU @ 2.20GHz
 GLOBAL| CPUID                                                              1003

 MEMORY| system memory details [Kb]
 MEMORY|                        rank 0           min           max       average
 MEMORY| MemTotal            196690960     196690960     196690960     196690960
 MEMORY| MemFree             112209888     112209888     112209888     112209888
 MEMORY| Buffers               1008980       1008980       1008980       1008980
 MEMORY| Cached               58618240      58618240      58618240      58618240
 MEMORY| Slab                  4565252       4565252       4565252       4565252
 MEMORY| SReclaimable          3425960       3425960       3425960       3425960
 MEMORY| MemLikelyFree       175263068     175263068     175263068     175263068


 *** Fundamental physical constants (SI units) ***

 *** Literature: B. J. Mohr and B. N. Taylor,
 ***             CODATA recommended values of the fundamental physical
 ***             constants: 2006, Web Version 5.1
 ***             http://physics.nist.gov/constants

 Speed of light in vacuum [m/s]                             2.99792458000000E+08
 Magnetic constant or permeability of vacuum [N/A**2]       1.25663706143592E-06
 Electric constant or permittivity of vacuum [F/m]          8.85418781762039E-12
 Planck constant (h) [J*s]                                  6.62606896000000E-34
 Planck constant (h-bar) [J*s]                              1.05457162825177E-34
 Elementary charge [C]                                      1.60217648700000E-19
 Electron mass [kg]                                         9.10938215000000E-31
 Electron g factor [ ]                                     -2.00231930436220E+00
 Proton mass [kg]                                           1.67262163700000E-27
 Fine-structure constant                                    7.29735253760000E-03
 Rydberg constant [1/m]                                     1.09737315685270E+07
 Avogadro constant [1/mol]                                  6.02214179000000E+23
 Boltzmann constant [J/K]                                   1.38065040000000E-23
 Atomic mass unit [kg]                                      1.66053878200000E-27
 Bohr radius [m]                                            5.29177208590000E-11

 *** Conversion factors ***

 [u] -> [a.u.]                                              1.82288848426455E+03
 [Angstrom] -> [Bohr] = [a.u.]                              1.88972613288564E+00
 [a.u.] = [Bohr] -> [Angstrom]                              5.29177208590000E-01
 [a.u.] -> [s]                                              2.41888432650478E-17
 [a.u.] -> [fs]                                             2.41888432650478E-02
 [a.u.] -> [J]                                              4.35974393937059E-18
 [a.u.] -> [N]                                              8.23872205491840E-08
 [a.u.] -> [K]                                              3.15774647902944E+05
 [a.u.] -> [kJ/mol]                                         2.62549961709828E+03
 [a.u.] -> [kcal/mol]                                       6.27509468713739E+02
 [a.u.] -> [Pa]                                             2.94210107994716E+13
 [a.u.] -> [bar]                                            2.94210107994716E+08
 [a.u.] -> [atm]                                            2.90362800883016E+08
 [a.u.] -> [eV]                                             2.72113838565563E+01
 [a.u.] -> [Hz]                                             6.57968392072181E+15
 [a.u.] -> [1/cm] (wave numbers)                            2.19474631370540E+05
 [a.u./Bohr**2] -> [1/cm]                                   5.14048714338585E+03
 

 CELL_TOP| Volume [angstrom^3]:                                       523.473168
 CELL_TOP| Vector a [angstrom     9.047     0.000     0.000   |a| =     9.046556
 CELL_TOP| Vector b [angstrom     0.000     7.834     0.000   |b| =     7.834318
 CELL_TOP| Vector c [angstrom     0.000     0.000     7.386   |c| =     7.386011
 CELL_TOP| Angle (b,c), alpha [degree]:                                90.000000
 CELL_TOP| Angle (a,c), beta  [degree]:                                90.000000
 CELL_TOP| Angle (a,b), gamma [degree]:                                90.000000
 CELL_TOP| Numerically orthorhombic:                                         YES
 
 GENERATE|  Preliminary Number of Bonds generated:                             0
 GENERATE|  Achieved consistency in connectivity generation.

 CELL| Volume [angstrom^3]:                                           523.473168
 CELL| Vector a [angstrom]:       9.047     0.000     0.000   |a| =     9.046556
 CELL| Vector b [angstrom]:       0.000     7.834     0.000   |b| =     7.834318
 CELL| Vector c [angstrom]:       0.000     0.000     7.386   |c| =     7.386011
 CELL| Angle (b,c), alpha [degree]:                                    90.000000
 CELL| Angle (a,c), beta  [degree]:                                    90.000000
 CELL| Angle (a,b), gamma [degree]:                                    90.000000
 CELL| Numerically orthorhombic:                                             YES

 CELL_REF| Volume [angstrom^3]:                                       523.473168
 CELL_REF| Vector a [angstrom     9.047     0.000     0.000   |a| =     9.046556
 CELL_REF| Vector b [angstrom     0.000     7.834     0.000   |b| =     7.834318
 CELL_REF| Vector c [angstrom     0.000     0.000     7.386   |c| =     7.386011
 CELL_REF| Angle (b,c), alpha [degree]:                                90.000000
 CELL_REF| Angle (a,c), beta  [degree]:                                90.000000
 CELL_REF| Angle (a,b), gamma [degree]:                                90.000000
 CELL_REF| Numerically orthorhombic:                                         YES

 *******************************************************************************
 *******************************************************************************
 **                                                                           **
 **     #####                         ##              ##                      **
 **    ##   ##            ##          ##              ##                      **
 **   ##     ##                       ##            ######                    **
 **   ##     ##  ##   ##  ##   #####  ##  ##   ####   ##    #####    #####    **
 **   ##     ##  ##   ##  ##  ##      ## ##   ##      ##   ##   ##  ##   ##   **
 **   ##  ## ##  ##   ##  ##  ##      ####     ###    ##   ######   ######    **
 **    ##  ###   ##   ##  ##  ##      ## ##      ##   ##   ##       ##        **
 **     #######   #####   ##   #####  ##  ##  ####    ##    #####   ##        **
 **           ##                                                    ##        **
 **                                                                           **
 **                                                ... make the atoms dance   **
 **                                                                           **
 **            Copyright (C) by CP2K developers group (2000-2021)             **
 **                      J. Chem. Phys. 152, 194103 (2020)                    **
 **                                                                           **
 *******************************************************************************

 DFT| Spin restricted Kohn-Sham (RKS) calculation                            RKS
 DFT| Multiplicity                                                             1
 DFT| Number of spin states                                                    1
 DFT| Charge                                                                   0
 DFT| Self-interaction correction (SIC)                                       NO
 DFT| Cutoffs: density                                              1.000000E-10
 DFT|          gradient                                             1.000000E-10
 DFT|          tau                                                  1.000000E-10
 DFT|          cutoff_smoothing_range                               0.000000E+00
 DFT| XC density smoothing                                                  NONE
 DFT| XC derivatives                                                          PW
 FUNCTIONAL| ROUTINE=NEW
 FUNCTIONAL| BECKE88:
 FUNCTIONAL| A. Becke, Phys. Rev. A 38, 3098 (1988) {LDA version}               
 FUNCTIONAL| LYP:
 FUNCTIONAL| C. Lee, W. Yang, R.G. Parr, Phys. Rev. B, 37, 785 (1988) {LDA versi
 FUNCTIONAL| on}                                                                

 QS| Method:                                                                 GPW
 QS| Density plane wave grid type                        NON-SPHERICAL FULLSPACE
 QS| Number of grid levels:                                                    4
 QS| Density cutoff [a.u.]:                                                500.0
 QS| Multi grid cutoff [a.u.]: 1) grid level                               500.0
 QS|                           2) grid level                               166.7
 QS|                           3) grid level                                55.6
 QS|                           4) grid level                                18.5
 QS| Grid level progression factor:                                          3.0
 QS| Relative density cutoff [a.u.]:                                        50.0
 QS| Interaction thresholds: eps_pgf_orb:                                1.0E-05
 QS|                         eps_filter_matrix:                          0.0E+00
 QS|                         eps_core_charge:                            1.0E-12
 QS|                         eps_rho_gspace:                             1.0E-10
 QS|                         eps_rho_rspace:                             1.0E-10
 QS|                         eps_gvg_rspace:                             1.0E-05
 QS|                         eps_ppl:                                    1.0E-02
 QS|                         eps_ppnl:                                   1.0E-07


 ATOMIC KIND INFORMATION

  1. Atomic kind: O                                     Number of atoms:      16

     Orbital Basis Set                                             DZVP-GTH-BLYP

       Number of orbital shell sets:                                           2
       Number of orbital shells:                                               5
       Number of primitive Cartesian functions:                                5
       Number of Cartesian basis functions:                                   14
       Number of spherical basis functions:                                   13
       Norm type:                                                              2

       Normalised Cartesian orbitals:

                        Set   Shell   Orbital            Exponent    Coefficient

                          1       1    2s                8.278333       0.534660
                                                         2.431918      -0.065036
                                                         0.753040      -0.408612
                                                         0.208465      -0.080873

                          1       2    3s                8.278333       0.000000
                                                         2.431918       0.000000
                                                         0.753040       0.000000
                                                         0.208465       0.219880

                          1       3    3px               8.278333      -2.002435
                                                         2.431918      -1.318890
                                                         0.753040      -0.476446
                                                         0.208465      -0.075594
                          1       3    3py               8.278333      -2.002435
                                                         2.431918      -1.318890
                                                         0.753040      -0.476446
                                                         0.208465      -0.075594
                          1       3    3pz               8.278333      -2.002435
                                                         2.431918      -1.318890
                                                         0.753040      -0.476446
                                                         0.208465      -0.075594

                          1       4    4px               8.278333       0.000000
                                                         2.431918       0.000000
                                                         0.753040       0.000000
                                                         0.208465       0.200785
                          1       4    4py               8.278333       0.000000
                                                         2.431918       0.000000
                                                         0.753040       0.000000
                                                         0.208465       0.200785
                          1       4    4pz               8.278333       0.000000
                                                         2.431918       0.000000
                                                         0.753040       0.000000
                                                         0.208465       0.200785

                          2       1    3dx2              0.800000       1.113825
                          2       1    3dxy              0.800000       1.929201
                          2       1    3dxz              0.800000       1.929201
                          2       1    3dy2              0.800000       1.113825
                          2       1    3dyz              0.800000       1.929201
                          2       1    3dz2              0.800000       1.113825

       Atomic covalent radius [Angstrom]:                                  0.730

       Atomic van der Waals radius [Angstrom]:                             1.520

     GTH Potential information for                                   GTH-BLYP-q6

       Description:                       Goedecker-Teter-Hutter pseudopotential
                                           Goedecker et al., PRB 54, 1703 (1996)
                                          Hartwigsen et al., PRB 58, 3641 (1998)
                                                      Krack, TCA 114, 145 (2005)

       Gaussian exponent of the core charge distribution:               8.438331
       Electronic configuration (s p d ...):                               2   4

       Parameters of the local part of the GTH pseudopotential:

                          rloc        C1          C2          C3          C4
                        0.243420  -16.991892    2.566142

       Parameters of the non-local part of the GTH pseudopotential:

                   l      r(l)      h(i,j,l)

                   0    0.220831   18.388851
                   1    0.217201

  2. Atomic kind: H                                     Number of atoms:      32

     Orbital Basis Set                                             DZVP-GTH-BLYP

       Number of orbital shell sets:                                           2
       Number of orbital shells:                                               3
       Number of primitive Cartesian functions:                                5
       Number of Cartesian basis functions:                                    5
       Number of spherical basis functions:                                    5
       Norm type:                                                              2

       Normalised Cartesian orbitals:

                        Set   Shell   Orbital            Exponent    Coefficient

                          1       1    1s                8.592682      -0.090761
                                                         1.874162      -0.162457
                                                         0.510524      -0.115739
                                                         0.167158      -0.126909

                          1       2    2s                8.592682       0.000000
                                                         1.874162       0.000000
                                                         0.510524       0.000000
                                                         0.167158       0.186319

                          2       1    2px               0.700000       0.912668
                          2       1    2py               0.700000       0.912668
                          2       1    2pz               0.700000       0.912668

       Atomic covalent radius [Angstrom]:                                  0.320

       Atomic van der Waals radius [Angstrom]:                             1.090

     GTH Potential information for                                   GTH-BLYP-q1

       Description:                       Goedecker-Teter-Hutter pseudopotential
                                           Goedecker et al., PRB 54, 1703 (1996)
                                          Hartwigsen et al., PRB 58, 3641 (1998)
                                                      Krack, TCA 114, 145 (2005)

       Gaussian exponent of the core charge distribution:              12.500000
       Electronic configuration (s p d ...):                                   1

       Parameters of the local part of the GTH pseudopotential:

                          rloc        C1          C2          C3          C4
                        0.200000   -4.195961    0.730498


 MOLECULE KIND INFORMATION


 All atoms are their own molecule, skipping detailed information


 TOTAL NUMBERS AND MAXIMUM NUMBERS

  Total number of            - Atomic kinds:                                   2
                             - Atoms:                                         48
                             - Shell sets:                                    96
                             - Shells:                                       176
                             - Primitive Cartesian functions:                240
                             - Cartesian basis functions:                    384
                             - Spherical basis functions:                    368

  Maximum angular momentum of- Orbital basis functions:                        2
                             - Local part of the GTH pseudopotential:          2
                             - Non-local part of the GTH pseudopotential:      0


 MODULE QUICKSTEP:  ATOMIC COORDINATES IN angstrom

  Atom  Kind  Element       X           Y           Z          Z(eff)       Mass

       1     1 O    8    9.040000    7.810000    7.380000      6.0000      15.9994
       2     2 H    1    0.798000    0.468000    0.345000      1.0000       1.0079
       3     2 H    1    8.240000    0.474000    0.336000      1.0000       1.0079
       4     1 O    8    4.520000    0.017400    0.009570      6.0000      15.9994
       5     2 H    1    4.520000    6.900000    0.320000      1.0000       1.0079
       6     2 H    1    4.520000    7.820000    6.390000      1.0000       1.0079
       7     1 O    8    2.270000    3.920000    7.380000      6.0000      15.9994
       8     2 H    1    2.250000    2.980000    0.345000      1.0000       1.0079
       9     2 H    1    1.440000    4.370000    0.336000      1.0000       1.0079
      10     1 O    8    6.760000    3.910000    0.000203      6.0000      15.9994
      11     2 H    1    7.580000    4.390000    0.319000      1.0000       1.0079
      12     2 H    1    6.800000    3.920000    6.390000      1.0000       1.0079
      13     1 O    8    2.240000    1.310000    0.923000      6.0000      15.9994
      14     2 H    1    3.070000    0.836000    0.607000      1.0000       1.0079
      15     2 H    1    2.280000    1.300000    1.920000      1.0000       1.0079
      16     1 O    8    6.800000    1.300000    0.931000      6.0000      15.9994
      17     2 H    1    5.970000    0.846000    0.583000      1.0000       1.0079
      18     2 H    1    6.770000    2.240000    0.580000      1.0000       1.0079
      19     1 O    8    9.040000    5.200000    0.912000      6.0000      15.9994
      20     2 H    1    9.040000    6.160000    0.602000      1.0000       1.0079
      21     2 H    1    9.050000    5.230000    1.910000      1.0000       1.0079
      22     1 O    8    4.520000    5.240000    0.931000      6.0000      15.9994
      23     2 H    1    3.710000    4.750000    0.593000      1.0000       1.0079
      24     2 H    1    5.320000    4.760000    0.575000      1.0000       1.0079
      25     1 O    8    2.280000    1.300000    3.690000      6.0000      15.9994
      26     2 H    1    1.450000    0.849000    4.040000      1.0000       1.0079
      27     2 H    1    2.260000    2.230000    4.040000      1.0000       1.0079
      28     1 O    8    6.810000    1.310000    3.700000      6.0000      15.9994
      29     2 H    1    6.780000    1.300000    2.700000      1.0000       1.0079
      30     2 H    1    5.980000    0.838000    4.010000      1.0000       1.0079
      31     1 O    8    9.040000    5.210000    3.680000      6.0000      15.9994
      32     2 H    1    0.012000    6.150000    4.040000      1.0000       1.0079
      33     2 H    1    0.821000    4.770000    4.030000      1.0000       1.0079
      34     1 O    8    4.510000    5.230000    3.700000      6.0000      15.9994
      35     2 H    1    4.530000    5.210000    2.700000      1.0000       1.0079
      36     2 H    1    5.340000    4.760000    4.010000      1.0000       1.0079
      37     1 O    8    0.020800    7.820000    4.610000      6.0000      15.9994
      38     2 H    1    9.040000    0.009300    5.610000      1.0000       1.0079
      39     2 H    1    8.240000    0.461000    4.300000      1.0000       1.0079
      40     1 O    8    4.550000    0.009260    4.620000      6.0000      15.9994
      41     2 H    1    3.720000    0.456000    4.290000      1.0000       1.0079
      42     2 H    1    4.530000    6.910000    4.270000      1.0000       1.0079
      43     1 O    8    2.250000    3.910000    4.610000      6.0000      15.9994
      44     2 H    1    2.270000    3.920000    5.610000      1.0000       1.0079
      45     2 H    1    3.080000    4.380000    4.300000      1.0000       1.0079
      46     1 O    8    6.770000    3.920000    4.620000      6.0000      15.9994
      47     2 H    1    6.800000    2.990000    4.270000      1.0000       1.0079
      48     2 H    1    7.600000    4.370000    4.280000      1.0000       1.0079




 SCF PARAMETERS         Density guess:                                    ATOMIC
                        --------------------------------------------------------
                        max_scf:                                              50
                        max_scf_history:                                       0
                        max_diis:                                              4
                        --------------------------------------------------------
                        eps_scf:                                        1.00E-06
                        eps_scf_history:                                0.00E+00
                        eps_diis:                                       1.00E-01
                        eps_eigval:                                     1.00E-05
                        --------------------------------------------------------
                        level_shift [a.u.]:                                 0.00
                        --------------------------------------------------------
                        Mixing method:                           DIRECT_P_MIXING
                        --------------------------------------------------------
                        No outer SCF

 PW_GRID| Information for grid number                                          1
 PW_GRID| Grid distributed over                                    48 processors
 PW_GRID| Real space group dimensions                                    48    1
 PW_GRID| the grid is blocked:                                                NO
 PW_GRID| Cutoff [a.u.]                                                    500.0
 PW_GRID| spherical cutoff:                                                   NO
 PW_GRID|   Bounds   1            -90      89                Points:         180
 PW_GRID|   Bounds   2            -75      74                Points:         150
 PW_GRID|   Bounds   3            -72      71                Points:         144
 PW_GRID| Volume element (a.u.^3)  0.9086E-03     Volume (a.u.^3)      3532.5721
 PW_GRID| Grid span                                                    FULLSPACE
 PW_GRID|   Distribution                         Average         Max         Min
 PW_GRID|   G-Vectors                            81000.0       81000       81000
 PW_GRID|   G-Rays                                 450.0         450         450
 PW_GRID|   Real Space Points                    81000.0       86400       64800

 PW_GRID| Information for grid number                                          2
 PW_GRID| Number of the reference grid                                         1
 PW_GRID| Grid distributed over                                    48 processors
 PW_GRID| Real space group dimensions                                    48    1
 PW_GRID| the grid is blocked:                                                NO
 PW_GRID| Cutoff [a.u.]                                                    166.7
 PW_GRID| spherical cutoff:                                                   NO
 PW_GRID|   Bounds   1            -50      49                Points:         100
 PW_GRID|   Bounds   2            -45      44                Points:          90
 PW_GRID|   Bounds   3            -40      40                Points:          81
 PW_GRID| Volume element (a.u.^3)  0.4846E-02     Volume (a.u.^3)      3532.5721
 PW_GRID| Grid span                                                    FULLSPACE
 PW_GRID|   Distribution                         Average         Max         Min
 PW_GRID|   G-Vectors                            15187.5       15500       14800
 PW_GRID|   G-Rays                                 151.9         155         148
 PW_GRID|   Real Space Points                    15187.5       21870       14580

 PW_GRID| Information for grid number                                          3
 PW_GRID| Number of the reference grid                                         1
 PW_GRID| Grid distributed over                                    48 processors
 PW_GRID| Real space group dimensions                                    48    1
 PW_GRID| the grid is blocked:                                                NO
 PW_GRID| Cutoff [a.u.]                                                     55.6
 PW_GRID| spherical cutoff:                                                   NO
 PW_GRID|   Bounds   1            -30      29                Points:          60
 PW_GRID|   Bounds   2            -27      26                Points:          54
 PW_GRID|   Bounds   3            -24      23                Points:          48
 PW_GRID| Volume element (a.u.^3)  0.2271E-01     Volume (a.u.^3)      3532.5721
 PW_GRID| Grid span                                                    FULLSPACE
 PW_GRID|   Distribution                         Average         Max         Min
 PW_GRID|   G-Vectors                             3240.0        3420        3120
 PW_GRID|   G-Rays                                  54.0          57          52
 PW_GRID|   Real Space Points                     3240.0        5184        2592

 PW_GRID| Information for grid number                                          4
 PW_GRID| Number of the reference grid                                         1
 PW_GRID| Grid distributed over                                    48 processors
 PW_GRID| Real space group dimensions                                     6    8
 PW_GRID| the grid is blocked:                                                NO
 PW_GRID| Cutoff [a.u.]                                                     18.5
 PW_GRID| spherical cutoff:                                                   NO
 PW_GRID|   Bounds   1            -18      17                Points:          36
 PW_GRID|   Bounds   2            -15      14                Points:          30
 PW_GRID|   Bounds   3            -13      13                Points:          27
 PW_GRID| Volume element (a.u.^3)  0.1211         Volume (a.u.^3)      3532.5721
 PW_GRID| Grid span                                                    FULLSPACE
 PW_GRID|   Distribution                         Average         Max         Min
 PW_GRID|   G-Vectors                              607.5         648         540
 PW_GRID|   G-Rays                                  16.9          18          15
 PW_GRID|   Real Space Points                      607.5         648         486

 POISSON| Solver                                                        PERIODIC
 POISSON| Periodicity                                                        XYZ

 RS_GRID| Information for grid number                                          1
 RS_GRID|   Bounds   1            -90      89                Points:         180
 RS_GRID|   Bounds   2            -75      74                Points:         150
 RS_GRID|   Bounds   3            -72      71                Points:         144
 RS_GRID| Real space distribution over                                  8 groups
 RS_GRID| Real space distribution along direction                              1
 RS_GRID| Border size                                                         29
 RS_GRID| Real space distribution over                                  6 groups
 RS_GRID| Real space distribution along direction                              2
 RS_GRID| Border size                                                         29
 RS_GRID|   Distribution                         Average         Max         Min
 RS_GRID|   Planes                                  80.5          81          80
 RS_GRID|   Distribution                         Average         Max         Min
 RS_GRID|   Planes                                  83.0          83          83

 RS_GRID| Information for grid number                                          2
 RS_GRID|   Bounds   1            -50      49                Points:         100
 RS_GRID|   Bounds   2            -45      44                Points:          90
 RS_GRID|   Bounds   3            -40      40                Points:          81
 RS_GRID| Real space fully replicated
 RS_GRID| Group size                                                           1

 RS_GRID| Information for grid number                                          3
 RS_GRID|   Bounds   1            -30      29                Points:          60
 RS_GRID|   Bounds   2            -27      26                Points:          54
 RS_GRID|   Bounds   3            -24      23                Points:          48
 RS_GRID| Real space fully replicated
 RS_GRID| Group size                                                           1

 RS_GRID| Information for grid number                                          4
 RS_GRID|   Bounds   1            -18      17                Points:          36
 RS_GRID|   Bounds   2            -15      14                Points:          30
 RS_GRID|   Bounds   3            -13      13                Points:          27
 RS_GRID| Real space fully replicated
 RS_GRID| Group size                                                           1

 Number of electrons:                                                        128
 Number of occupied orbitals:                                                 64
 Number of molecular orbitals:                                                64

 Number of orbital functions:                                                368
 Number of independent orbital functions:                                    368

 Extrapolation method: initial_guess

 Atomic guess: The first density matrix is obtained in terms of atomic orbitals
               and electronic configurations assigned to each atomic kind

 Guess for atomic kind: O

 Electronic structure
    Total number of core electrons                                          2.00
    Total number of valence electrons                                       6.00
    Total number of electrons                                               8.00
    Multiplicity                                                   not specified
    S   [  2.00] 2.00
    P      4.00
 

 *******************************************************************************
                  Iteration          Convergence                     Energy [au]
 *******************************************************************************
                          1        0.693736                     -15.576484431486
                          2        0.607057                     -15.585621272685
                          3        0.962111E-02                 -15.652864680100
                          4        0.139681E-02                 -15.652879569094
                          5        0.482182E-03                 -15.652879851728
                          6        0.285651E-03                 -15.652879876543
                          7        0.398117E-06                 -15.652879889960

 Energy components [Hartree]           Total Energy ::          -15.652879889960
                                        Band Energy ::           -2.992122930383
                                     Kinetic Energy ::           11.832931799081
                                   Potential Energy ::          -27.485811689041
                                      Virial (-V/T) ::            2.322823468921
                                        Core Energy ::          -26.139879459302
                                          XC Energy ::           -3.155492517652
                                     Coulomb Energy ::           13.642492086993
                       Total Pseudopotential Energy ::          -38.007853462991
                       Local Pseudopotential Energy ::          -39.320896544836
                    Nonlocal Pseudopotential Energy ::            1.313043081845
                                        Confinement ::            0.350422046086

 Orbital energies  State     L     Occupation   Energy[a.u.]          Energy[eV]

                       1     0          2.000      -0.861204          -23.434549
 
                       1     1          4.000      -0.317429           -8.637677
 

 Total Electron Density at R=0:                                         0.000952

 Guess for atomic kind: H

 Electronic structure
    Total number of core electrons                                          0.00
    Total number of valence electrons                                       1.00
    Total number of electrons                                               1.00
    Multiplicity                                                   not specified
    S      1.00
 

 *******************************************************************************
                  Iteration          Convergence                     Energy [au]
 *******************************************************************************
                          1        0.316896E-02                  -0.422453501026
                          2        0.328845E-03                  -0.422462494147
                          3        0.113312E-06                  -0.422462591984

 Energy components [Hartree]           Total Energy ::           -0.422462591984
                                        Band Energy ::           -0.193030813655
                                     Kinetic Energy ::            0.475635387250
                                   Potential Energy ::           -0.898097979234
                                      Virial (-V/T) ::            1.888206814105
                                        Core Energy ::           -0.478998252516
                                          XC Energy ::           -0.248263936733
                                     Coulomb Energy ::            0.304799597265
                       Total Pseudopotential Energy ::           -0.972153085242
                       Local Pseudopotential Energy ::           -0.972153085242
                    Nonlocal Pseudopotential Energy ::            0.000000000000
                                        Confinement ::            0.175194454757

 Orbital energies  State     L     Occupation   Energy[a.u.]          Energy[eV]

                       1     0          1.000      -0.193031           -5.252636
 

 Total Electron Density at R=0:                                         0.239813
 Re-scaling the density matrix to get the right number of electrons
                  # Electrons              Trace(P)               Scaling factor
                          128               128.000                        1.000


 SCF WAVEFUNCTION OPTIMIZATION

  Step     Update method      Time    Convergence         Total energy    Change
  ------------------------------------------------------------------------------
     1 P_Mix/Diag. 0.40E+00    5.3     1.14391856      -273.5858719442 -2.74E+02
     2 P_Mix/Diag. 0.40E+00    6.1     0.66519386      -274.3719280002 -7.86E-01
     3 P_Mix/Diag. 0.40E+00    7.0     0.39215881      -274.8470879177 -4.75E-01
     4 P_Mix/Diag. 0.40E+00    6.9     0.23053589      -275.1298290819 -2.83E-01
     5 P_Mix/Diag. 0.40E+00    6.4     0.13564130      -275.2987268043 -1.69E-01
     6 P_Mix/Diag. 0.40E+00    6.3     0.07988445      -275.3998391128 -1.01E-01
     7 DIIS/Diag.  0.31E-03    6.9     0.04608990      -275.4604396532 -6.06E-02
     8 DIIS/Diag.  0.44E-04    5.8     0.00023460      -275.5512743036 -9.08E-02
     9 DIIS/Diag.  0.73E-04    6.9     0.00017463      -275.5512742901  1.36E-08
    10 DIIS/Diag.  0.22E-04    5.8     0.00001698      -275.5512743220 -3.20E-08
    11 DIIS/Diag.  0.35E-05    5.3     0.00001169      -275.5512743232 -1.18E-09
    12 DIIS/Diag.  0.24E-05    6.3     0.00000270      -275.5512743234 -1.30E-10
    13 DIIS/Diag.  0.17E-05    6.2     0.00000146      -275.5512743234 -8.19E-12
    14 DIIS/Diag.  0.49E-06    6.5     0.00000035      -275.5512743234 -7.79E-12

  *** SCF run converged in    14 steps ***


  Electronic density on regular grids:       -127.9999999749        0.0000000251
  Core density on regular grids:              127.9999999957       -0.0000000043
  Total charge density on r-space grids:        0.0000000208
  Total charge density g-space grids:           0.0000000208

  Overlap energy of the core charge distribution:               0.00000018893520
  Self energy of the core charge distribution:               -712.64985942859789
  Core Hamiltonian energy:                                    208.76154655968455
  Hartree energy:                                             296.08118101714058
  Exchange-correlation energy:                                -67.74414266053269

  Total energy:                                              -275.55127432337025

 !-----------------------------------------------------------------------------!
                     Mulliken Population Analysis

 #  Atom  Element  Kind  Atomic population                           Net charge
       1     O        1          6.711241                             -0.711241
       2     H        2          0.643838                              0.356162
       3     H        2          0.644616                              0.355384
       4     O        1          6.708768                             -0.708768
       5     H        2          0.645937                              0.354063
       6     H        2          0.645382                              0.354618
       7     O        1          6.713848                             -0.713848
       8     H        2          0.644907                              0.355093
       9     H        2          0.643668                              0.356332
      10     O        1          6.707665                             -0.707665
      11     H        2          0.645002                              0.354998
      12     H        2          0.645694                              0.354306
      13     O        1          6.709539                             -0.709539
      14     H        2          0.644311                              0.355689
      15     H        2          0.643191                              0.356809
      16     O        1          6.712706                             -0.712706
      17     H        2          0.644388                              0.355612
      18     H        2          0.644774                              0.355226
      19     O        1          6.710134                             -0.710134
      20     H        2          0.644950                              0.355050
      21     H        2          0.644286                              0.355714
      22     O        1          6.711665                             -0.711665
      23     H        2          0.644385                              0.355615
      24     H        2          0.644534                              0.355466
      25     O        1          6.710222                             -0.710222
      26     H        2          0.646067                              0.353933
      27     H        2          0.646781                              0.353219
      28     O        1          6.709821                             -0.709821
      29     H        2          0.644771                              0.355229
      30     H        2          0.645202                              0.354798
      31     O        1          6.710719                             -0.710719
      32     H        2          0.645604                              0.354396
      33     H        2          0.646020                              0.353980
      34     O        1          6.709763                             -0.709763
      35     H        2          0.644756                              0.355244
      36     H        2          0.645109                              0.354891
      37     O        1          6.707394                             -0.707394
      38     H        2          0.645636                              0.354364
      39     H        2          0.644118                              0.355882
      40     O        1          6.706896                             -0.706896
      41     H        2          0.646243                              0.353757
      42     H        2          0.646202                              0.353798
      43     O        1          6.710787                             -0.710787
      44     H        2          0.643594                              0.356406
      45     H        2          0.643820                              0.356180
      46     O        1          6.707887                             -0.707887
      47     H        2          0.646690                              0.353310
      48     H        2          0.646470                              0.353530
 # Total charge                            128.000000                  0.000000

 !-----------------------------------------------------------------------------!

 !-----------------------------------------------------------------------------!
                           Hirshfeld Charges

  #Atom  Element  Kind  Ref Charge     Population                    Net charge
      1       O      1       6.000          7.176                        -1.176
      2       H      2       1.000          0.412                         0.588
      3       H      2       1.000          0.412                         0.588
      4       O      1       6.000          7.176                        -1.176
      5       H      2       1.000          0.413                         0.587
      6       H      2       1.000          0.412                         0.588
      7       O      1       6.000          7.177                        -1.177
      8       H      2       1.000          0.412                         0.588
      9       H      2       1.000          0.412                         0.588
     10       O      1       6.000          7.173                        -1.173
     11       H      2       1.000          0.412                         0.588
     12       H      2       1.000          0.414                         0.586
     13       O      1       6.000          7.175                        -1.175
     14       H      2       1.000          0.411                         0.589
     15       H      2       1.000          0.413                         0.587
     16       O      1       6.000          7.177                        -1.177
     17       H      2       1.000          0.411                         0.589
     18       H      2       1.000          0.412                         0.588
     19       O      1       6.000          7.175                        -1.175
     20       H      2       1.000          0.411                         0.589
     21       H      2       1.000          0.413                         0.587
     22       O      1       6.000          7.176                        -1.176
     23       H      2       1.000          0.412                         0.588
     24       H      2       1.000          0.413                         0.587
     25       O      1       6.000          7.175                        -1.175
     26       H      2       1.000          0.411                         0.589
     27       H      2       1.000          0.415                         0.585
     28       O      1       6.000          7.174                        -1.174
     29       H      2       1.000          0.413                         0.587
     30       H      2       1.000          0.412                         0.588
     31       O      1       6.000          7.176                        -1.176
     32       H      2       1.000          0.412                         0.588
     33       H      2       1.000          0.413                         0.587
     34       O      1       6.000          7.174                        -1.174
     35       H      2       1.000          0.413                         0.587
     36       H      2       1.000          0.412                         0.588
     37       O      1       6.000          7.174                        -1.174
     38       H      2       1.000          0.413                         0.587
     39       H      2       1.000          0.412                         0.588
     40       O      1       6.000          7.174                        -1.174
     41       H      2       1.000          0.413                         0.587
     42       H      2       1.000          0.414                         0.586
     43       O      1       6.000          7.174                        -1.174
     44       H      2       1.000          0.413                         0.587
     45       H      2       1.000          0.412                         0.588
     46       O      1       6.000          7.173                        -1.173
     47       H      2       1.000          0.415                         0.585
     48       H      2       1.000          0.412                         0.588

  Total Charge                                                            0.000
 !-----------------------------------------------------------------------------!

 ENERGY| Total FORCE_EVAL ( QS ) energy [a.u.]:             -275.551274323370762

 ATOMIC FORCES in [a.u.]

 # Atom   Kind   Element          X              Y              Z
      1      1      O           0.00184767    -0.00062045    -0.00127425
      2      2      H          -0.00058980    -0.00058813    -0.00029150
      3      2      H          -0.00191920     0.00085197     0.00089174
      4      1      O          -0.00031818     0.00509640    -0.00085851
      5      2      H          -0.00005948    -0.00326570     0.00091222
      6      2      H           0.00024779     0.00010242     0.00113174
      7      1      O           0.00185343     0.00064045    -0.00133791
      8      2      H          -0.00056037    -0.00071037     0.00030353
      9      2      H          -0.00067741     0.00018808     0.00049917
     10      1      O          -0.00146827    -0.00168573     0.00454379
     11      2      H           0.00210195     0.00059603     0.00087989
     12      2      H          -0.00029030     0.00004517    -0.00538363
     13      1      O           0.00054834     0.00025316    -0.00491226
     14      2      H          -0.00101404     0.00038481    -0.00002745
     15      2      H          -0.00048671    -0.00003340     0.00503934
     16      1      O          -0.00011447    -0.00260828     0.00102956
     17      2      H           0.00173059     0.00081435     0.00050581
     18      2      H           0.00001702     0.00086474    -0.00004254
     19      1      O          -0.00048456     0.00136987    -0.00632534
     20      2      H           0.00019447    -0.00194975     0.00076555
     21      2      H          -0.00029193     0.00003662     0.00444512
     22      1      O          -0.00450779     0.00547717     0.00366983
     23      2      H           0.00069786    -0.00071260    -0.00044160
     24      2      H           0.00282968    -0.00313287    -0.00197538
     25      1      O           0.00073793    -0.00980515    -0.00277719
     26      2      H           0.00121102     0.00064019    -0.00088966
     27      2      H          -0.00024546     0.00771850     0.00238050
     28      1      O           0.00088892     0.00086964     0.00347490
     29      2      H           0.00021882    -0.00029077    -0.00287819
     30      2      H          -0.00077656    -0.00032729     0.00019908
     31      1      O          -0.00358340     0.00131391    -0.00137135
     32      2      H          -0.00042409    -0.00091704    -0.00091083
     33      2      H           0.00280733    -0.00225096     0.00086238
     34      1      O          -0.00325074     0.00242904     0.00395533
     35      2      H           0.00040791    -0.00003252    -0.00294997
     36      2      H           0.00115957    -0.00125679     0.00003168
     37      1      O           0.00184117    -0.00112972    -0.00219854
     38      2      H           0.00014877    -0.00055268     0.00306817
     39      2      H          -0.00127656     0.00076942    -0.00131792
     40      1      O           0.00403327     0.00453604     0.00495788
     41      2      H          -0.00388472     0.00184545    -0.00205714
     42      2      H          -0.00077326    -0.00540781    -0.00219301
     43      1      O          -0.00361236    -0.00214523    -0.00329335
     44      2      H           0.00062484     0.00048826     0.00284783
     45      2      H           0.00118727     0.00084314     0.00008372
     46      1      O          -0.00241385     0.00782218     0.00407659
     47      2      H          -0.00022445    -0.00773272    -0.00230679
     48      2      H           0.00105601     0.00082215    -0.00065697
 SUM OF ATOMIC FORCES          -0.00485632    -0.00033678     0.00188410     0.00521988

 -------------------------------------------------------------------------------
 -                                                                             -
 -                                DBCSR STATISTICS                             -
 -                                                                             -
 -------------------------------------------------------------------------------
 COUNTER                                    TOTAL       BLAS       SMM       ACC
 flops     5 x     5 x    32             25344000       0.0%    100.0%      0.0%
 flops    13 x     5 x    32             31948800       0.0%    100.0%      0.0%
 flops     5 x    13 x    32             31948800       0.0%    100.0%      0.0%
 flops    13 x    13 x    32             44129280       0.0%    100.0%      0.0%
 flops inhomo. stacks                           0       0.0%      0.0%      0.0%
 flops total                       133.370880E+06       0.0%    100.0%      0.0%
 flops max/rank                      3.459840E+06       0.0%    100.0%      0.0%
 matmuls inhomo. stacks                         0       0.0%      0.0%      0.0%
 matmuls total                              35280       0.0%    100.0%      0.0%
 number of processed stacks                 11070       0.0%    100.0%      0.0%
 average stack size                                     0.0       3.2       0.0
 marketing flops                   260.014080E+06
 -------------------------------------------------------------------------------
 # multiplications                             15
 max memory usage/rank             664.829952E+06
 # max total images/rank                        3
 # max 3D layers                                1
 # MPI messages exchanged                   14400
 MPI messages size (bytes):
  total size                        39.567360E+06
  min size                           0.000000E+00
  max size                          23.552000E+03
  average size                       2.747733E+03
 MPI breakdown and total messages size (bytes):
             size <=      128               12000                        0
       128 < size <=     8192                 720                  5437440
      8192 < size <=    32768                1680                 34129920
     32768 < size <=   131072                   0                        0
    131072 < size <=  4194304                   0                        0
   4194304 < size <= 16777216                   0                        0
  16777216 < size                               0                        0
 -------------------------------------------------------------------------------

 *** WARNING in dbcsr_mm.F:294 :: Using a non-square number of MPI ranks ***
 *** might lead to poor performance. Used ranks: 48 Suggested: 49 100    ***

 -------------------------------------------------------------------------------
 -                                                                             -
 -                      DBCSR MESSAGE PASSING PERFORMANCE                      -
 -                                                                             -
 -------------------------------------------------------------------------------
 ROUTINE             CALLS      AVE VOLUME [Bytes]
 MP_Bcast                5                     12.
 MP_Allreduce          133                     11.
 MP_Alltoall           478                  14562.
 MP_ISend              720                   1714.
 MP_IRecv              690                    757.
 -------------------------------------------------------------------------------

 -------------------------------------------------------------------------------
 -                                                                             -
 -                                GRID STATISTICS                              -
 -                                                                             -
 -------------------------------------------------------------------------------
 LP    KERNEL             BACKEND                              COUNT     PERCENT
 1     collocate ortho    REF                                 160395      20.96%
 1     integrate ortho    REF                                 157464      20.58%
 0     collocate ortho    REF                                 116430      15.22%
 0     integrate ortho    REF                                 108668      14.20%
 2     integrate ortho    REF                                  89863      11.74%
 2     collocate ortho    REF                                  84825      11.09%
 3     integrate ortho    REF                                  20215       2.64%
 3     collocate ortho    REF                                  15600       2.04%
 0     collocate general  REF                                   4608       0.60%
 0     integrate general  REF                                   2304       0.30%
 1     integrate general  REF                                   2304       0.30%
 4     integrate ortho    REF                                   1726       0.23%
 4     collocate ortho    REF                                    735       0.10%
 5     integrate ortho    REF                                     49       0.01%
 -------------------------------------------------------------------------------

 MEMORY| Estimated peak process memory [MiB]                                 637

 -------------------------------------------------------------------------------
 ----                             MULTIGRID INFO                            ----
 -------------------------------------------------------------------------------
 count for grid        1:          64450          cutoff [a.u.]          500.00
 count for grid        2:          51944          cutoff [a.u.]          166.67
 count for grid        3:          39479          cutoff [a.u.]           55.56
 count for grid        4:           4205          cutoff [a.u.]           18.52
 total gridlevel count  :         160078

 -------------------------------------------------------------------------------
 -                                                                             -
 -                         MESSAGE PASSING PERFORMANCE                         -
 -                                                                             -
 -------------------------------------------------------------------------------

 ROUTINE             CALLS      AVE VOLUME [Bytes]
 MP_Group                4
 MP_Bcast               99                3970923.
 MP_Allreduce          536                    793.
 MP_Sync                32
 MP_Alltoall           330                2853911.
 MP_ISendRecv         4230                  73872.
 MP_Wait              4876
 MP_comm_split          14
 MP_ISend              476                 556293.
 MP_IRecv              476                 556293.
 MP_Recv                10                  17664.
 -------------------------------------------------------------------------------


 -------------------------------------------------------------------------------
 -                                                                             -
 -                           R E F E R E N C E S                               -
 -                                                                             -
 -------------------------------------------------------------------------------
 
 CP2K version 8.2, the CP2K developers group (2021).
 CP2K is freely available from https://www.cp2k.org/ .

 Kuehne,Thomas D.; Iannuzzi,Marcella; Del Ben,Mauro;
 Rybkin,Vladimir V.; Seewald,Patrick; Stein,Frederick; Laino,Teodoro;
 Khaliullin,Rustam Z.; Schuett,Ole; Schiffmann,Florian; Golze,Dorothea;
 Wilhelm,Jan; Chulkov,Sergey; Bani-Hashemian,Mohammad Hossein;
 Weber,Valery; Borstnik,Urban; Taillefumier,Mathieu;
 Jakobovits,Alice Shoshana; Lazzaro,Alfio; Pabst,Hans; Mueller,Tiziano;
 Schade,Robert; Guidon,Manuel; Andermatt,Samuel; Holmberg,Nico;
 Schenter,Gregory K.; Hehn,Anna; Bussy,Augustin; Belleflamme,Fabian;
 Tabacchi,Gloria; Gloess,Andreas; Lass,Michael; Bethune,Iain;
 Mundy,Christopher J.; Plessl,Christian; Watkins,Matt;
 VandeVondele,Joost; Krack,Matthias; Hutter,Juerg. 
 The Journal of Chemical Physics, 152 (19), (2020). 
 CP2K: An electronic structure and molecular dynamics software package -
 Quickstep: Efficient and accurate electronic structure calculations.
 https://doi.org/10.1063/5.0007045

 Schuett, Ole; Messmer, Peter; Hutter, Juerg; VandeVondele, Joost. 
 Electronic Structure Calculations on Graphics Processing Units, John
 Wiley & Sons, Ltd, 173-190 (2016). 
 GPU-Accelerated Sparse Matrix-Matrix Multiplication for
 Linear Scaling Density Functional Theory.
 https://doi.org/10.1002/9781118670712.ch8

 Heinecke, A; Henry, G; Hutchinson, M; Pabst, H. 
 Proceedings of Intl. Supercomputing Conference, 981-991 (2016). 
 LIBXSMM: Accelerating Small Matrix Multiplications
 by Runtime Code Generation.
 https://doi.org/10.1109/SC.2016.83

 Borstnik, U; VandeVondele, J; Weber, V; Hutter, J. 
 PARALLEL COMPUTING, 40 (5-6), 47-58 (2014). 
 Sparse matrix multiplication: The distributed block-compressed sparse
 row library.
 https://doi.org/10.1016/j.parco.2014.03.012

 Hutter, J; Iannuzzi, M; Schiffmann, F; VandeVondele, J. 
 WIREs Comput Mol Sci., 4 (1), 15-25 (2014). 
 CP2K: atomistic simulations of condensed matter systems.
 https://doi.org/10.1002/wcms.1159

 Marek, A; Blum, V; Johanni, R; Havu, V; Lang, B; Auckenthaler, T;
 Heinecke, A; Bungartz, H; Lederer, H. 
 Journal of Physics: Condensed Matter, 26 (21), (2014). 
 The ELPA library: scalable parallel eigenvalue solutions for
 electronic structure
 theory and computational science.
 https://doi.org/10.1088/0953-8984/26/21/213201

 Krack, M. 
 THEORETICAL CHEMISTRY ACCOUNTS, 114 (1-3), 145-152 (2005). 
 Pseudopotentials for H to Kr optimized for gradient-corrected
 exchange-correlation functionals.
 https://doi.org/10.1007/s00214-005-0655-y

 VandeVondele, J; Krack, M; Mohamed, F; Parrinello, M; Chassaing, T;
 Hutter, J. COMPUTER PHYSICS COMMUNICATIONS, 167 (2), 103-128 (2005). 
 QUICKSTEP: Fast and accurate density functional calculations using a
 mixed Gaussian and plane waves approach.
 https://doi.org/10.1016/j.cpc.2004.12.014

 Frigo, M; Johnson, SG. 
 PROCEEDINGS OF THE IEEE, 93 (2), 216-231 (2005). 
 The design and implementation of FFTW3.
 https://doi.org/10.1109/JPROC.2004.840301

 Hartwigsen, C; Goedecker, S; Hutter, J. 
 PHYSICAL REVIEW B, 58 (7), 3641-3662 (1998). 
 Relativistic separable dual-space Gaussian pseudopotentials from H to Rn.
 https://doi.org/10.1103/PhysRevB.58.3641

 Lippert, G; Hutter, J; Parrinello, M. 
 MOLECULAR PHYSICS, 92 (3), 477-487 (1997). 
 A hybrid Gaussian and plane wave density functional scheme.
 https://doi.org/10.1080/002689797170220

 Goedecker, S; Teter, M; Hutter, J. 
 PHYSICAL REVIEW B, 54 (3), 1703-1710 (1996). 
 Separable dual-space Gaussian pseudopotentials.
 https://doi.org/10.1103/PhysRevB.54.1703

 BECKE, AD. PHYSICAL REVIEW A, 38 (6), 3098-3100 (1988). 
 DENSITY-FUNCTIONAL EXCHANGE-ENERGY APPROXIMATION WITH CORRECT
 ASYMPTOTIC-BEHAVIOR.
 https://doi.org/10.1103/PhysRevA.38.3098

 LEE, CT; YANG, WT; PARR, RG. 
 PHYSICAL REVIEW B, 37 (2), 785-789 (1988). 
 DEVELOPMENT OF THE COLLE-SALVETTI CORRELATION-ENERGY FORMULA INTO A
 FUNCTIONAL OF THE ELECTRON-DENSITY.
 https://doi.org/10.1103/PhysRevB.37.785


 -------------------------------------------------------------------------------
 -                                                                             -
 -                                T I M I N G                                  -
 -                                                                             -
 -------------------------------------------------------------------------------
 SUBROUTINE                       CALLS  ASD         SELF TIME        TOTAL TIME
                                MAXIMUM       AVERAGE  MAXIMUM  AVERAGE  MAXIMUM
 CP2K                                 1  1.0    0.102    0.121   94.758   94.760
 qs_forces                            1  2.0    0.000    0.000   94.139   94.139
 qs_energies                          1  3.0    0.000    0.000   92.096   92.176
 scf_env_do_scf                       1  4.0    0.000    0.000   88.584   88.596
 scf_env_do_scf_inner_loop           14  5.0    0.002    0.013   88.583   88.596
 qs_scf_new_mos                      14  6.0    0.000    0.000   53.481   54.010
 eigensolver                         14  7.0    0.001    0.002   29.168   29.179
 cp_fm_diag_elpa                     14  8.0    0.000    0.000   28.789   28.821
 cp_fm_redistribute_end              14  9.0   24.122   28.763   24.124   28.763
 cp_fm_diag_elpa_base                14  9.0    4.631   27.799    4.632   27.806
 rebuild_ks_matrix                   15  6.8    0.000    0.000   22.821   22.928
 qs_ks_build_kohn_sham_matrix        15  7.8    0.006    0.026   22.821   22.928
 qs_ks_update_qs_env                 14  6.0    0.001    0.016   22.069   22.171
 pw_transfer                        286 10.5    0.024    0.039   20.385   20.599
 fft_wrap_pw1pw2                    256 11.6    0.002    0.002   20.305   20.547
 fft3d_ps                           256 13.6    0.959    1.149   19.548   19.874
 mp_alltoall_z22v                   256 15.6   15.905   16.320   15.905   16.320
 fft_wrap_pw1pw2_500                166 12.6    0.281    0.393   12.853   13.094
 qs_rho_update_rho                   15  6.0    0.000    0.000   12.479   12.545
 calculate_rho_elec                  15  7.0    0.009    0.029   12.479   12.545
 sum_up_and_integrate                15  8.8    0.012    0.028   11.379   11.490
 integrate_v_rspace                  15  9.8    0.001    0.001   11.366   11.478
 copy_dbcsr_to_fm                    28  7.4    0.001    0.001   10.737   10.844
 density_rs2pw                       15  8.0    0.001    0.017   10.360   10.803
 qs_diis_b_step                      13  7.0    0.001    0.001   10.230   10.268
 cp_dbcsr_plus_fm_fm_t_native        15  7.9    0.000    0.000    9.539   10.116
 rs_pw_transfer                     124 10.3    0.003    0.018    9.570    9.958
 potential_pw2rs                     15 10.8    0.004    0.019    9.756    9.818
 calculate_dm_sparse                 14  7.0    0.000    0.000    8.673    9.228
 qs_vxc_create                       15  8.8    0.001    0.001    9.006    9.128
 xc_vxc_pw_create                    15  9.8    0.162    0.222    9.006    9.128
 dbcsr_complete_redistribute         44  8.9    0.009    0.023    8.374    8.711
 x_to_yz                            120 14.9    0.329    0.453    8.484    8.690
 dbcsr_multiply_generic              15  8.9    0.006    0.018    7.334    7.891
 mp_waitall_1                      5600 12.5    7.214    7.602    7.214    7.602
 yz_to_x                            106 14.1    0.059    0.088    7.069    7.281
 mp_alltoall_d11v                   247 10.1    5.033    5.639    5.033    5.639
 cp_fm_symm                          26  8.0    5.253    5.313    5.253    5.313
 dbcsr_desymmetrize_deep             28  8.4    0.003    0.019    4.497    4.699
 xc_rho_set_and_dset_create          15 10.8    0.040    0.073    3.655    3.755
 mp_cart_sub                         59  9.4    3.450    3.615    3.450    3.615
 multiply_cannon                     15  9.9    0.034    0.068    3.065    3.595
 fft_wrap_pw1pw2_20                  30 12.4    0.005    0.026    3.072    3.207
 mp_sum_d                           545  3.1    2.998    3.136    2.998    3.136
 multiply_cannon_loop                15 10.9    0.188    0.305    2.537    3.099
 hybrid_alltoall_any                 58 11.2    0.001    0.003    2.544    2.927
 mp_alltoall_i11v                   160  9.8    2.296    2.628    2.296    2.628
 copy_fm_to_dbcsr                    16  8.8    0.000    0.000    2.203    2.405
 mp_sum_l                           344  3.8    2.269    2.402    2.269    2.402
 fft_wrap_pw1pw2_170                 30 12.4    0.014    0.038    2.197    2.319
 mp_waitany                         476 12.1    1.893    2.308    1.893    2.308
 fft_wrap_pw1pw2_60                  30 12.4    0.014    0.066    2.181    2.281
 mp_alltoall_z11v                    30 15.4    2.005    2.188    2.005    2.188
 rs_pw_transfer_PW2RS_170            15 12.8    0.129    0.174    2.037    2.188
 mp_alltoall_i22                     72  9.7    1.866    2.112    1.866    2.112
 mp_cart_create                      33  9.3    1.823    2.091    1.823    2.091
 rs_pw_transfer_RS2PW_170            15 10.0    0.108    0.137    1.956    2.061
 rs_pw_transfer_PW2RS_500            17 12.3    0.443    0.562    1.888    2.041
 rs_pw_transfer_RS2PW_500            17  9.8    0.462    0.560    1.497    1.925
 -------------------------------------------------------------------------------

 The number of warnings for this run is : 1
 
 -------------------------------------------------------------------------------
  **** **** ******  **  PROGRAM ENDED AT                 2021-07-14 19:18:17.649
 ***** ** ***  *** **   PROGRAM RAN ON                    terahertz-Super-Server
 **    ****   ******    PROGRAM RAN BY                                 terahertz
 ***** **    ** ** **   PROGRAM PROCESS ID                                511113
  **** **  *******  **  PROGRAM STOPPED IN /home/terahertz/scratch/JOBS/RAY/cp2k
                                           -test
